
Thu Jun 28 12:28:22 2018: Request 90774 was acted upon.
 Transaction: Queue changed from 0-Help to 0-SDSC by jhidleba
       Queue: 0-SDSC
     Subject: XUP: Error Running Gaussian
       Owner: Nobody
  Requestors: jf548@ucla.edu
      Status: new
 Ticket <URL: https://tickets.xsede.org/Ticket/Display.html?id=90774 >


[Ticket created from XUP by jf548]
[From: Jason Fell]
[System: Comet]
[Category: Software]
Hello,

I am encountering an error when I try to run a gaussian calculation. My output file gives me this message:

Entering Gaussian System, Link 0=/opt/gaussian/09.D.01/g09/g09
 Initial command:
 /opt/gaussian/09.D.01/g09/l1.exe "/scratch/jf548/17519325/Gau-21980.inp" -scrdir="/scratch/jf548/17519325/"

I am unsure what I need to do to be able to run gaussian calculations. Thank you

-Jason 
