
Fri May 24 12:21:04 2019: Request 108717 was acted upon.
 Transaction: Queue changed from 0-Help to 0-SDSC by jhidleba
       Queue: 0-SDSC
     Subject: XUP: cmake
       Owner: jhidleba
  Requestors: tuf98537@temple.edu
      Status: new
 Ticket <URL: https://tickets.xsede.org/Ticket/Display.html?id=108717 >


[Ticket created from XUP by pratip]
[From: Pratip Chakraborty]
[System: Comet]
[Category: Software]
Hi, 

I am trying to install the following quantum chemistry package.
https://gitlab.com/Molcas/OpenMolcas

I am stuck at the cmake step as it tells me the command is not available. Can you guys help me install it? I am quite sure I will prompt the same for make also. 

Thank you.
Pratip 
